Running Job 1 of 1 f.inp
qchem f.inp_159206.0 /nobackup/cm18rb/C3F6-tp/run-1/wf/ 0
/apps/applications/qchem/6.0.1/1/default/exe/qcprog.exe_s f.inp_159206.0 /nobackup/cm18rb/C3F6-tp/run-1/wf/
                  Welcome to Q-Chem
     A Quantum Leap Into The Future Of Chemistry


 Q-Chem 6.0, Q-Chem, Inc., Pleasanton, CA (2022)

 License issued to: SRG Dmitry Shalashilin, University of Leeds

 E. Epifanovsky,  A. T. B. Gilbert,  Xintian Feng,  Joonho Lee,  Yuezhi Mao,  
 N. Mardirossian,  P. Pokhilko,  A. White,  M. Wormit,  M. P. Coons,  
 A. L. Dempwolff,  Zhengting Gan,  D. Hait,  P. R. Horn,  L. D. Jacobson,  
 I. Kaliman,  J. Kussmann,  A. W. Lange,  Ka Un Lao,  D. S. Levine,  Jie Liu,  
 S. C. McKenzie,  A. F. Morrison,  K. Nanda,  F. Plasser,  D. R. Rehn,  
 M. L. Vidal,  Zhi-Qiang You,  Ying Zhu,  B. Alam,  B. Albrecht,  
 A. Aldossary,  E. Alguire,  J. H. Andersen,  V. Athavale,  D. Barton,  
 K. Begam,  A. Behn,  N. Bellonzi,  Y. A. Bernard,  E. J. Berquist,  
 H. Burton,  A. Carreras,  K. Carter-Fenk,  Romit Chakraborty,  
 Chandrima Chakravarty,  Junhan Chen,  A. D. Chien,  K. D. Closser,  
 V. Cofer-Shabica,  L. Cunha,  S. Dasgupta,  Jia Deng,  M. de Wergifosse,  
 M. Diedenhofen,  Hainam Do,  S. Ehlert,  Po-Tung Fang,  S. Fatehi,  
 Qingguo Feng,  T. Friedhoff,  B. Ganoe,  J. Gayvert,  Qinghui Ge,  
 G. Gidofalvi,  M. Goldey,  J. Gomes,  C. Gonzalez-Espinoza,  S. Gulania,  
 A. Gunina,  J. A. Gyamfi,  M. W. D. Hanson-Heine,  P. H. P. Harbach,  
 A. W. Hauser,  M. F. Herbst,  M. Hernandez Vera,  M. Hodecker,  
 Z. C. Holden,  S. Houck,  Xunkun Huang,  Kerwin Hui,  B. C. Huynh,  
 K. Ikeda,  M. Ivanov,  Hyunjun Ji,  Zuxin Jin,  Hanjie Jiang,  B. Kaduk,  
 S. Kaehler,  R. Kang,  K. Khistyaev,  Jaehoon Kim,  Yongbin Kim,  
 P. Klunzinger,  Z. Koczor-Benda,  Joong Hoon Koh,  D. Kosenkov,  
 Saikiran Kotaru,  L. Koulias,  T. Kowalczyk,  C. M. Krauter,  K. Kue,  
 A. Kunitsa,  T. Kus,  A. Landau,  K. V. Lawler,  D. Lefrancois,  S. Lehtola,  
 Rain Li,  Shaozhi Li,  Yi-Pei Li,  Jiashu Liang,  M. Liebenthal,  
 Hung-Hsuan Lin,  You-Sheng Lin,  Fenglai Liu,  Kuan-Yu Liu,  
 M. Loipersberger,  A. Luenser,  C. Malbon,  A. Manjanath,  P. Manohar,  
 E. Mansoor,  S. F. Manzer,  Shan-Ping Mao,  A. V. Marenich,  T. Markovich,  
 S. Mason,  F. Matz,  S. A. Maurer,  P. F. McLaughlin,  M. F. S. J. Menger,  
 J.-M. Mewes,  S. A. Mewes,  P. Morgante,  Mohammad Mostafanejad,  
 J. W. Mullinax,  K. J. Oosterbaan,  G. Paran,  V. Parravicini,  
 Alexander C. Paul,  Suranjan K. Paul,  F. Pavosevic,  Zheng Pei,  S. Prager,  
 E. I. Proynov,  E. Ramos,  B. Rana,  A. E. Rask,  A. Rettig,  R. M. Richard,  
 F. Rob,  E. Rossomme,  T. Scheele,  M. Scheurer,  M. Schneider,  
 P. E. Schneider,  N. Sergueev,  S. M. Sharada,  Hengyuan Shen,  
 W. Skomorowski,  D. W. Small,  C. J. Stein,  Yingli Su,  Yu-Chuan Su,  
 E. J. Sundstrom,  Zhen Tao,  J. Thirman,  Hung-Yi Tsai,  T. Tsuchimochi,  
 N. M. Tubman,  C. Utku,  S. P. Veccham,  O. Vydrov,  J. Wenzel,  
 Jonathan Wong,  J. Witte,  A. Yamada,  Chou-Hsun Yang,  Kun Yao,  
 S. Yeganeh,  S. R. Yost,  A. Zech,  F. Zeller,  Igor Ying Zhang,  
 Xing Zhang,  Yu Zhang,  D. Zuev,  A. Aspuru-Guzik,  A. T. Bell,  
 N. A. Besley,  K. B. Bravaya,  B. R. Brooks,  D. Casanova,  Jeng-Da Chai,  
 Hsing-Ta Chen,  S. Coriani,  C. J. Cramer,  A. E. DePrince, III,  
 R. A. DiStasio Jr.,  A. Dreuw,  B. D. Dunietz,  T. R. Furlani,  
 W. A. Goddard III,  S. Grimme,  S. Hammes-Schiffer,  T. Head-Gordon,  
 W. J. Hehre,  Chao-Ping Hsu,  T.-C. Jagau,  Yousung Jung,  A. Klamt,  
 Jing Kong,  D. S. Lambrecht,  Xiangyuan Li,  WanZhen Liang,  N. J. Mayhall,  
 C. W. McCurdy,  J. B. Neaton,  T. Neudecker,  C. Ochsenfeld,  
 J. A. Parkhill,  R. Peverati,  V. A. Rassolov,  Haisheng Ren,  Yihan Shao,  
 L. V. Slipchenko,  R. P. Steele,  J. E. Subotnik,  A. J. W. Thom,  
 A. Tkatchenko,  D. G. Truhlar,  T. Van Voorhis,  Fan Wang,  
 T. A. Wesolowski,  K. B. Whaley,  H. L. Woodcock III,  P. M. Zimmerman,  
 S. Faraji,  P. M. W. Gill,  M. Head-Gordon,  J. M. Herbert,  A. I. Krylov

 Contributors to earlier versions of Q-Chem not listed above: 
 R. D. Adamson,  B. Austin,  R. Baer,  J. Baker,  G. J. O. Beran,  
 K. Brandhorst,  S. T. Brown,  E. F. C. Byrd,  Arup K. Chakraborty,  
 G. K. L. Chan,  Chun-Min Chang,  Yunqing Chen,  C.-L. Cheng,  
 Siu Hung Chien,  D. M. Chipman,  D. L. Crittenden,  H. Dachsel,  
 R. J. Doerksen,  A. D. Dutoi,  R. G. Edgar,  J. Fosso-Tande,  
 L. Fusti-Molnar,  D. Ghosh,  A. Ghysels,  A. Golubeva-Zadorozhnaya,  
 J. Gonthier,  M. S. Gordon,  S. R. Gwaltney,  G. Hawkins,  J. E. Herr,  
 A. Heyden,  S. Hirata,  E. G. Hohenstein,  G. Kedziora,  F. J. Keil,  
 C. Kelley,  Jihan Kim,  R. A. King,  R. Z. Khaliullin,  P. P. Korambath,  
 W. Kurlancheek,  A. Laurent,  A. M. Lee,  M. S. Lee,  S. V. Levchenko,  
 Ching Yeh Lin,  D. Liotard,  E. Livshits,  R. C. Lochan,  I. Lotan,  
 L. A. Martinez-Martinez,  P. E. Maslen,  N. Nair,  D. P. O'Neill,  
 D. Neuhauser,  E. Neuscamman,  C. M. Oana,  R. Olivares-Amaya,  R. Olson,  
 T. M. Perrine,  B. Peters,  P. A. Pieniazek,  A. Prociuk,  Y. M. Rhee,  
 J. Ritchie,  M. A. Rohrdanz,  E. Rosta,  N. J. Russ,  H. F. Schaefer III,  
 M. W. Schmidt,  N. E. Schultz,  S. Sharma,  N. Shenvi,  C. D. Sherrill,  
 A. C. Simmonett,  A. Sodt,  T. Stein,  D. Stuck,  K. S. Thanthiriwatte,  
 V. Vanovschi,  L. Vogt,  Tao Wang,  A. Warshel,  M. A. Watson,  
 C. F. Williams,  Q. Wu,  X. Xu,  Jun Yang,  W. Zhang,  Yan Zhao

   Please cite Q-Chem as follows:
  "Software for the frontiers of quantum chemistry:
   An overview of developments in the Q-Chem 5 package"
   J. Chem. Phys. 155, 084801 (2021)
   https://doi.org/10.1063/5.0055522 (open access)

 Q-Chem 6.0.1 for Intel X86 EM64T Linux

 Parts of Q-Chem use Armadillo 9.900.5 (Nocturnal Misbehaviour).
 http://arma.sourceforge.net/

 Q-Chem begins on Thu Nov 16 16:29:23 2023  

 Host: 
0

     Scratch files written to /nobackup/cm18rb/C3F6-tp/run-1/wf//
 Aug2322 |scratch|qcdevops|jenkins|workspace|build_RNUM
 Processing $rem in /apps/applications/qchem/6.0.1/1/default/config/preferences:
 Processing $rem in /home/home01/cm18rb/.qchemrc:

 Checking the input file for inconsistencies... 	...done.

--------------------------------------------------------------
User input:
--------------------------------------------------------------
$molecule
0  5
C     -1.74008906      0.29424471      0.01483151
F     -2.43413244      0.16289239     -1.11397314
F     -1.49326607      1.58523514      0.20600084
F     -2.51928192     -0.13483322      1.00512401
C     -0.47684053     -0.50657763     -0.04878575
F     -0.68820274     -1.80333556     -0.25255718
C      0.75960124     -0.06735819      0.06982613
F      1.11033444      1.17118541      0.27210023
F      1.79548643     -0.86045148     -0.00668410
$end
$rem
JOBTYPE             Force
EXCHANGE            BHHLYP
BASIS               6-31+G*
UNRESTRICTED        True
MAX_SCF_CYCLES      500
SYM_IGNORE          True
SCF_Algorithm       DIIS

SPIN_FLIP           True
SET_Iter            500

MAX_CIS_CYCLES      500

CIS_N_ROOTS 1
CIS_STATE_DERIV 1
$end
--------------------------------------------------------------
 ----------------------------------------------------------------
             Standard Nuclear Orientation (Angstroms)
    I     Atom           X                Y                Z
 ----------------------------------------------------------------
    1      C      -1.7400890600     0.2942447100     0.0148315100
    2      F      -2.4341324400     0.1628923900    -1.1139731400
    3      F      -1.4932660700     1.5852351400     0.2060008400
    4      F      -2.5192819200    -0.1348332200     1.0051240100
    5      C      -0.4768405300    -0.5065776300    -0.0487857500
    6      F      -0.6882027400    -1.8033355600    -0.2525571800
    7      C       0.7596012400    -0.0673581900     0.0698261300
    8      F       1.1103344400     1.1711854100     0.2721002300
    9      F       1.7954864300    -0.8604514800    -0.0066841000
 ----------------------------------------------------------------
 Nuclear Repulsion Energy =         513.27489440 hartrees
 There are       38 alpha and       34 beta electrons
 Requested basis set is 6-31+G(d)
 There are 45 shells and 171 basis functions

 Total QAlloc Memory Limit   8000 MB
 Mega-Array Size       188 MB
 MEM_STATIC part       192 MB


                       Distance Matrix (Angstroms)
             C (  1)   F (  2)   F (  3)   F (  4)   C (  5)   F (  6)
   F (  2)  1.331597
   F (  3)  1.328203  2.156530
   F (  4)  1.331138  2.141603  2.156372
   C (  5)  1.497051  2.326759  2.339598  2.328194
   F (  6)  2.361738  2.767013  3.512949  2.778221  1.329578
   C (  7)  2.526308  3.413844  2.797324  3.410339  1.317487  2.283349
   F (  8)  2.993347  3.937144  2.637147  3.926464  2.331733  3.515363
   F (  9)  3.719419  4.490323  4.103963  4.490824  2.300102  2.667995
             C (  7)   F (  8)
   F (  8)  1.303042
   F (  9)  1.306870  2.162106
 
 A cutoff of  1.0D-12 yielded    948 shell pairs
 There are     14435 function pairs
 Smallest overlap matrix eigenvalue = 4.68E-05

 Scale SEOQF with 1.000000e-01/1.000000e-01/1.000000e-01

 Standard Electronic Orientation quadrupole field applied
 Nucleus-field energy     =     0.0000000100 hartrees
 Guess from superposition of atomic densities
 Warning:  Energy on first SCF cycle will be non-variational
 SAD guess density has 72.000000 electrons

 -----------------------------------------------------------------------
  General SCF calculation program by
  Eric Jon Sundstrom, Paul Horn, Yuezhi Mao, Dmitri Zuev, Alec White,
  David Stuck, Shaama M.S., Shane Yost, Joonho Lee, David Small,
  Daniel Levine, Susi Lehtola, Hugh Burton, Evgeny Epifanovsky,
  Bang C. Huynh
 -----------------------------------------------------------------------
 Exchange:     0.5000 Hartree-Fock + 0.5000 B88
 Correlation:  1.0000 LYP
 Using SG-1 standard quadrature grid
 using 8 threads for integral computing
 -------------------------------------------------------
 OpenMP Integral computing Module                
 Release: version 1.0, May 2013, Q-Chem Inc. Pittsburgh 
 -------------------------------------------------------
 A unrestricted SCF calculation will be
 performed using DIIS
 SCF converges when DIIS error is below 1.0e-08
 ---------------------------------------
  Cycle       Energy         DIIS error
 ---------------------------------------
    1    -714.8641774236      2.55e-02  
    2    -712.2942816721      3.98e-03  
    3    -712.2097690797      5.28e-03  
    4    -712.5107406980      6.12e-04  
    5    -712.5158427186      3.51e-04  
    6    -712.5182158540      1.69e-04  
    7    -712.5195383840      1.44e-04  
    8    -712.5205107085      1.04e-04  
    9    -712.5213274402      9.54e-05  
   10    -712.5220961553      6.75e-05  
   11    -712.5224790359      4.26e-05  
   12    -712.5226588458      2.39e-05  
   13    -712.5227342560      1.08e-05  
   14    -712.5227481390      5.11e-06  
   15    -712.5227501640      2.23e-06  
   16    -712.5227505291      1.14e-06  
   17    -712.5227506162      4.78e-07  
   18    -712.5227506338      2.68e-07  
   19    -712.5227506399      1.58e-07  
   20    -712.5227506419      5.03e-08  
   21    -712.5227506422      2.90e-08  
   22    -712.5227506423      1.37e-08  
   23    -712.5227506423      5.50e-09  Convergence criterion met
 ---------------------------------------
 SCF time:   CPU 69.18s  wall 9.00s 
<S^2> =          6.014226776
 SCF   energy in the final basis set =     -712.5227506423
 Total energy in the final basis set =     -712.5227506423
 
 MAX_CIS_SUBSPACE fits in available memory
 Spin-flip DFT calculation will be performed
 CIS energy converged when residual is below 10e- 6
 ---------------------------------------------------
 Iter    Rts Conv    Rts Left    Ttl Dev     Max Dev
 ---------------------------------------------------
   1         0           1      0.000644    0.000644
   2         0           1      0.000066    0.000066
   3         0           1      0.000009    0.000009
   4         0           1      0.000001    0.000001
   5         1           0      0.000000    0.000000    Roots Converged
 ---------------------------------------------------
 
 ---------------------------------------------------
            SF-DFT Excitation Energies              
 (The first "excited" state might be the ground state) 
 ---------------------------------------------------

 Excited state   1: excitation energy (eV) =  -10.1493
 Total energy for state  1:                  -712.89572958 au
    <S**2>     :  2.0224
    S(    4) --> S(    1) amplitude =  0.9974 alpha
 
 ---------------------------------------------------
 Calculating Relaxed Density
 ---------------------------------------------------
 Iter    Rts Conv    Rts Left    Ttl Dev     Max Dev
 ---------------------------------------------------
   1         0           1      0.001221    0.001221
   2         0           1      0.072843    0.072843
   3         0           1      0.003434    0.003434
   4         0           1      0.001477    0.001477
   5         0           1      0.001597    0.001597
   6         0           1      0.001818    0.001818
   7         0           1      0.001575    0.001575
   8         0           1      0.001846    0.001846
   9         0           1      0.001383    0.001383
  10         0           1      0.001286    0.001286
  11         0           1      0.000762    0.000762
  12         0           1      0.000586    0.000586
  13         0           1      0.000687    0.000687
  14         0           1      0.000612    0.000612
  15         0           1      0.000539    0.000539
  16         0           1      0.000552    0.000552
  17         0           1      0.000476    0.000476
  18         0           1      0.000452    0.000452
  19         0           1      0.000473    0.000473
  20         0           1      0.000497    0.000497
  21         0           1      0.000610    0.000610
  22         0           1      0.000574    0.000574
  23         0           1      0.000558    0.000558
  24         0           1      0.000795    0.000795
  25         0           1      0.000463    0.000463
  26         0           1      0.000757    0.000757
  27         0           1      0.000569    0.000569
  28         0           1      0.000564    0.000564
  29         0           1      0.000649    0.000649
  30         0           1      0.000640    0.000640
  31         0           1      0.000705    0.000705
  32         0           1      0.000637    0.000637
  33         0           1      0.000573    0.000573
  34         0           1      0.000690    0.000690
  35         0           1      0.000579    0.000579
  36         0           1      0.000574    0.000574
  37         0           1      0.000736    0.000736
  38         0           1      0.000590    0.000590
  39         0           1      0.000455    0.000455
  40         0           1      0.000548    0.000548
  41         0           1      0.000406    0.000406
  42         0           1      0.000356    0.000356
  43         0           1      0.000472    0.000472
  44         0           1      0.000375    0.000375
  45         0           1      0.000450    0.000450
  46         0           1      0.000544    0.000544
  47         0           1      0.000358    0.000358
  48         0           1      0.000418    0.000418
  49         0           1      0.000280    0.000280
  50         0           1      0.000449    0.000449
  51         0           1      0.000302    0.000302
  52         0           1      0.000395    0.000395
  53         0           1      0.000297    0.000297
  54         0           1      0.000350    0.000350
  55         0           1      0.000329    0.000329
  56         0           1      0.000369    0.000369
  57         0           1      0.000341    0.000341
  58         0           1      0.000338    0.000338
  59         0           1      0.000289    0.000289
  60         0           1      0.000275    0.000275
  61         0           1      0.000255    0.000255
  62         0           1      0.000301    0.000301
  63         0           1      0.000266    0.000266
  64         0           1      0.000348    0.000348
  65         0           1      0.000272    0.000272
  66         0           1      0.000304    0.000304
  67         0           1      0.000254    0.000254
  68         0           1      0.000252    0.000252
  69         0           1      0.000348    0.000348
  70         0           1      0.000188    0.000188
  71         0           1      0.000299    0.000299
  72         0           1      0.000171    0.000171
  73         0           1      0.000232    0.000232
  74         0           1      0.000184    0.000184
  75         0           1      0.000168    0.000168
  76         0           1      0.000184    0.000184
  77         0           1      0.000144    0.000144
  78         0           1      0.000124    0.000124
  79         0           1      0.000165    0.000165
  80         0           1      0.000115    0.000115
  81         0           1      0.000147    0.000147
  82         0           1      0.000125    0.000125
  83         0           1      0.000122    0.000122
  84         0           1      0.000098    0.000098
  85         0           1      0.000177    0.000177
  86         0           1      0.000099    0.000099
  87         0           1      0.000103    0.000103
  88         0           1      0.000164    0.000164
  89         0           1      0.000099    0.000099
  90         0           1      0.000086    0.000086
  91         0           1      0.000086    0.000086
  92         0           1      0.000075    0.000075
  93         0           1      0.000137    0.000137
  94         0           1      0.000079    0.000079
  95         0           1      0.000067    0.000067
  96         0           1      0.000073    0.000073
  97         0           1      0.000062    0.000062
  98         0           1      0.000061    0.000061
  99         0           1      0.000063    0.000063
 100         0           1      0.000062    0.000062
 101         0           1      0.000067    0.000067
 102         0           1      0.000072    0.000072
 103         0           1      0.000083    0.000083
 104         0           1      0.000081    0.000081
 105         0           1      0.000064    0.000064
 106         0           1      0.000053    0.000053
 107         0           1      0.000051    0.000051
 108         0           1      0.000043    0.000043
 109         0           1      0.000039    0.000039
 110         0           1      0.000034    0.000034
 111         0           1      0.000030    0.000030
 112         0           1      0.000026    0.000026
 113         0           1      0.000023    0.000023
 114         0           1      0.000023    0.000023
 115         0           1      0.000020    0.000020
 116         0           1      0.000020    0.000020
 117         0           1      0.000018    0.000018
 118         0           1      0.000019    0.000019
 119         0           1      0.000019    0.000019
 120         0           1      0.000015    0.000015
 121         0           1      0.000015    0.000015
 122         0           1      0.000013    0.000013
 123         0           1      0.000011    0.000011
 124         0           1      0.000010    0.000010
 125         0           1      0.000009    0.000009
 126         0           1      0.000008    0.000008
 127         0           1      0.000008    0.000008
 128         0           1      0.000007    0.000007
 129         0           1      0.000008    0.000008
 130         0           1      0.000007    0.000007
 131         0           1      0.000007    0.000007
 132         0           1      0.000007    0.000007
 133         0           1      0.000007    0.000007
 134         0           1      0.000007    0.000007
 135         0           1      0.000007    0.000007
 136         0           1      0.000007    0.000007
 137         0           1      0.000006    0.000006
 138         0           1      0.000006    0.000006
 139         0           1      0.000005    0.000005
 140         0           1      0.000005    0.000005
 141         0           1      0.000005    0.000005
 142         0           1      0.000005    0.000005
 143         0           1      0.000005    0.000005
 144         0           1      0.000004    0.000004
 145         0           1      0.000004    0.000004
 146         0           1      0.000004    0.000004
 147         0           1      0.000003    0.000003
 148         0           1      0.000003    0.000003
 149         0           1      0.000003    0.000003
 150         0           1      0.000003    0.000003
 151         0           1      0.000002    0.000002
 152         0           1      0.000002    0.000002
 153         0           1      0.000002    0.000002
 154         0           1      0.000002    0.000002
 155         0           1      0.000002    0.000002
 156         0           1      0.000002    0.000002
 157         0           1      0.000002    0.000002
 158         0           1      0.000001    0.000001
 159         0           1      0.000001    0.000001
 160         0           1      0.000001    0.000001
 161         1           0      0.000000    0.000000    Roots Converged
 ---------------------------------------------------
  SETman timing summary (seconds)
  CPU time               681.96s
  System time              0.00s
  Wall time               86.25s
 
 --------------------------------------------------------------
 
                    Orbital Energies (a.u.)
 --------------------------------------------------------------
 
 Alpha MOs
 -- Occupied --
-25.5292 -25.4291 -25.4219 -25.4215 -25.3923 -25.3888 -10.9451 -10.7740
-10.7514  -1.5831  -1.5515  -1.4867  -1.4599  -1.4543  -1.4243  -1.0364
 -0.9059  -0.8342  -0.7952  -0.7681  -0.7625  -0.7447  -0.7276  -0.7047
 -0.6917  -0.6709  -0.6322  -0.6293  -0.5995  -0.5866  -0.5862  -0.5836
 -0.5648  -0.5536  -0.5458  -0.4492  -0.1989  -0.1331
 -- Virtual --
  0.0219   0.0454   0.0584   0.0656   0.0829   0.0883   0.0937   0.1048
  0.1078   0.1332   0.1371   0.1534   0.1716   0.1986   0.2079   0.2371
  0.2425   0.2572   0.2792   0.2814   0.2927   0.3020   0.3137   0.3232
  0.3288   0.3442   0.3467   0.3544   0.3603   0.3635   0.3719   0.3784
  0.3801   0.3954   0.4028   0.4216   0.4431   0.4547   0.4745   0.4883
  0.5012   0.5430   0.5569   0.6773   0.7237   0.7764   0.8002   0.8150
  0.8584   0.8901   0.9376   1.0754   1.1460   1.1746   1.2540   1.3001
  1.3863   1.3911   1.4229   1.5648   1.5740   1.5837   1.5963   1.6296
  1.6591   1.6682   1.6709   1.6758   1.6795   1.6799   1.7011   1.7181
  1.7187   1.7241   1.7327   1.7377   1.7540   1.7735   1.7845   1.7860
  1.8072   1.8480   1.8550   1.8594   1.8764   1.8990   1.9010   1.9180
  1.9264   1.9401   1.9754   2.0129   2.0541   2.0843   2.1078   2.1191
  2.1351   2.1357   2.1394   2.1611   2.1795   2.2136   2.2515   2.2883
  2.3222   2.3519   2.4110   2.4557   2.5136   2.5871   2.6500   2.7165
  2.7366   2.8533   2.8769   2.9458   3.0548   3.2254   3.2386   3.2954
  3.3305   3.3811   3.4113   3.5585   4.3665   4.5945   4.8338   5.4912
  5.5870   5.8047   5.8970   6.4455   7.3770
 
 Beta MOs
 -- Occupied --
-25.4902 -25.4238 -25.4169 -25.4165 -25.3851 -25.3812 -10.9420 -10.7524
-10.7253  -1.5416  -1.4781  -1.4640  -1.4456  -1.4411  -1.4060  -0.9444
 -0.8580  -0.7844  -0.7508  -0.7410  -0.7407  -0.7093  -0.6736  -0.6586
 -0.6131  -0.6098  -0.6063  -0.5778  -0.5735  -0.5628  -0.5570  -0.5438
 -0.5395  -0.5309
 -- Virtual --
 -0.3287  -0.1377   0.0128   0.0398   0.0457   0.0605   0.0798   0.0813
  0.0860   0.1054   0.1060   0.1212   0.1235   0.1329   0.1453   0.1565
  0.2138   0.2200   0.2422   0.2606   0.2630   0.2803   0.2824   0.2940
  0.2951   0.3050   0.3180   0.3283   0.3393   0.3478   0.3538   0.3649
  0.3673   0.3710   0.3711   0.3815   0.3860   0.4000   0.4047   0.4292
  0.4441   0.4566   0.4743   0.4950   0.5390   0.5622   0.5936   0.7385
  0.7403   0.7883   0.8100   0.8763   0.8786   0.9043   0.9568   1.0971
  1.1568   1.2054   1.2808   1.3581   1.3946   1.4341   1.4346   1.5818
  1.5951   1.6171   1.6184   1.6475   1.6645   1.6818   1.6891   1.6923
  1.6926   1.6939   1.7112   1.7241   1.7271   1.7389   1.7500   1.7512
  1.7641   1.7918   1.8015   1.8037   1.8228   1.8634   1.8659   1.8778
  1.8817   1.9060   1.9152   1.9256   1.9449   1.9541   1.9980   2.0275
  2.0871   2.1050   2.1201   2.1305   2.1425   2.1493   2.1551   2.1659
  2.1982   2.2328   2.2678   2.3135   2.3581   2.3673   2.4348   2.4889
  2.5465   2.6184   2.6904   2.7407   2.7872   2.8677   2.9000   2.9597
  3.0806   3.2303   3.2534   3.3105   3.3448   3.3944   3.4283   3.5840
  4.3998   4.6100   4.8618   5.5004   5.5891   5.8139   5.8998   6.4486
  7.3820
 --------------------------------------------------------------
 
          Ground-State Mulliken Net Atomic Charges

     Atom                 Charge (a.u.)    Spin (a.u.)
  --------------------------------------------------------
      1 C                     1.094373       0.203554
      2 F                    -0.253877       0.054747
      3 F                    -0.305402       0.076032
      4 F                    -0.253379       0.055688
      5 C                    -0.501682       1.998662
      6 F                     0.247562       0.443971
      7 C                     0.572925       1.065932
      8 F                    -0.323066       0.064755
      9 F                    -0.277455       0.036659
  --------------------------------------------------------
  Sum of atomic charges =    -0.000000
  Sum of spin   charges =     4.000000

 -----------------------------------------------------------------
                    Cartesian Multipole Moments
 -----------------------------------------------------------------
    Charge (ESU x 10^10)
                -0.0000
    Dipole Moment (Debye)
         X      -0.9275      Y       0.1136      Z      -0.0199
       Tot       0.9346
    Quadrupole Moments (Debye-Ang)
        XX     -50.4158     XY      -0.2939     YY     -50.2718
        XZ      -0.2186     YZ      -0.4226     ZZ     -47.5944
    Octopole Moments (Debye-Ang^2)
       XXX      87.3793    XXY       5.6510    XYY      28.7346
       YYY      10.1922    XXZ      -0.4999    XYZ      -0.5497
       YYZ      -0.8412    XZZ      32.6224    YZZ       4.1725
       ZZZ      -0.4457
    Hexadecapole Moments (Debye-Ang^3)
      XXXX    -757.0060   XXXY      21.7955   XXYY    -177.8988
      XYYY      20.5573   YYYY    -316.5226   XXXZ      -6.3187
      XXYZ      -3.8599   XYYZ      -2.3439   YYYZ     -14.0712
      XXZZ    -149.2126   XYZZ       6.9956   YYZZ     -72.0583
      XZZZ      -6.7241   YZZZ     -13.5492   ZZZZ    -117.9561
 -----------------------------------------------------------------
 Calculating analytic gradient of the CIS energy
 CIS relaxed dipole moment
            1
    1   0.1122109
    2   0.2800690
    3   0.0488417
	Magnitude:	 0.306 au	 0.777 Debye
 CIS 1 State Energy is -712.8957295818
 Gradient of the state energy (including CIS Excitation Energy)
            1           2           3           4           5           6
    1  -0.0018566   0.0030708  -0.0018457   0.0035272   0.2266949  -0.0165973
    2   0.0025901  -0.0002633   0.0021166   0.0005873   0.1133195  -0.0575578
    3   0.0009593   0.0033664   0.0001130  -0.0034225   0.0267288  -0.0095506
            7           8           9
    1  -0.2184605   0.0096310  -0.0041639
    2  -0.0623859  -0.0127436   0.0143370
    3  -0.0186936  -0.0017495   0.0022488
 Gradient time:  CPU 26.36 s  wall 3.41 s
 Total job time:  98.92s(wall), 780.59s(cpu) 
 Thu Nov 16 16:31:02 2023

        *************************************************************
        *                                                           *
        *  Thank you very much for using Q-Chem.  Have a nice day.  *
        *                                                           *
        *************************************************************